/*--------------------------------*- C++ -*----------------------------------*\
  =========                 |
  \\      /  F ield         | OpenFOAM: The Open Source CFD Toolbox
   \\    /   O peration     | Website:  https://openfoam.org
    \\  /    A nd           | Version:  10
     \\/     M anipulation  |
\*---------------------------------------------------------------------------*/
FoamFile
{
    format      ascii;
    class       volScalarField;
    location    "5";
    object      T;
}
// * * * * * * * * * * * * * * * * * * * * * * * * * * * * * * * * * * * * * //

dimensions      [0 0 0 1 0 0 0];

internalField   nonuniform List<scalar> 
400
(
249.981
249.945
249.909
249.876
249.846
249.819
249.797
249.78
249.768
249.762
249.761
249.766
249.777
249.794
249.815
249.842
249.872
249.906
249.943
249.981
249.944
249.832
249.725
249.624
249.532
249.452
249.385
249.332
249.296
249.276
249.274
249.29
249.323
249.373
249.439
249.52
249.613
249.716
249.827
249.942
249.905
249.716
249.533
249.362
249.206
249.069
248.954
248.865
248.803
248.769
248.766
248.792
248.848
248.933
249.046
249.183
249.342
249.517
249.706
249.901
249.863
249.592
249.329
249.082
248.858
248.66
248.495
248.366
248.276
248.228
248.222
248.26
248.341
248.463
248.625
248.823
249.052
249.305
249.576
249.858
249.818
249.457
249.108
248.779
248.48
248.216
247.996
247.823
247.703
247.638
247.63
247.679
247.787
247.95
248.166
248.43
248.735
249.073
249.435
249.811
249.769
249.309
248.863
248.444
248.061
247.725
247.443
247.222
247.068
246.984
246.972
247.035
247.171
247.379
247.655
247.992
248.382
248.815
249.278
249.759
249.713
249.142
248.589
248.067
247.592
247.173
246.823
246.547
246.354
246.249
246.233
246.309
246.476
246.734
247.076
247.496
247.983
248.523
249.101
249.699
249.65
248.953
248.276
247.638
247.057
246.545
246.116
245.78
245.543
245.412
245.39
245.48
245.683
245.996
246.413
246.927
247.524
248.187
248.897
249.632
249.578
248.734
247.915
247.144
246.44
245.823
245.304
244.897
244.61
244.45
244.421
244.526
244.767
245.142
245.645
246.266
246.99
247.796
248.66
249.553
249.493
248.479
247.493
246.566
245.722
244.982
244.362
243.874
243.529
243.335
243.296
243.417
243.701
244.145
244.745
245.49
246.362
247.335
248.38
249.461
249.393
248.176
246.994
245.884
244.877
243.996
243.259
242.679
242.269
242.035
241.984
242.121
242.45
242.972
243.682
244.57
245.614
246.786
248.047
249.351
249.273
247.811
246.394
245.068
243.87
242.826
241.957
241.274
240.789
240.51
240.443
240.596
240.975
241.582
242.416
243.468
244.714
246.123
247.644
249.218
249.125
247.363
245.66
244.076
242.655
241.426
240.407
239.61
239.043
238.713
238.627
238.794
239.224
239.923
240.895
242.133
243.617
245.308
247.147
249.055
248.94
246.8
244.744
242.85
241.169
239.73
238.547
237.626
236.971
236.585
236.476
236.655
237.135
237.93
239.051
240.499
242.259
244.291
246.523
248.851
248.698
246.069
243.567
241.299
239.318
237.648
236.291
235.242
234.497
234.053
233.918
234.104
234.628
235.516
236.791
238.468
240.546
242.989
245.716
248.586
248.367
245.077
242.004
239.284
236.965
235.05
233.52
232.35
231.521
231.024
230.86
231.044
231.602
232.57
233.99
235.903
238.335
241.271
244.63
248.227
247.88
243.653
239.834
236.577
233.896
231.745
230.064
228.798
227.906
227.366
227.176
227.349
227.919
228.935
230.467
232.595
235.397
238.91
243.085
247.704
247.072
241.44
236.65
232.792
229.771
227.439
225.666
224.354
223.438
222.879
222.668
222.819
223.369
224.383
225.958
228.229
231.354
235.493
240.717
246.85
245.445
237.612
231.642
227.234
223.995
221.613
219.865
218.602
217.73
217.197
216.983
217.099
217.583
218.51
220.006
222.261
225.549
230.227
236.691
245.161
241.011
230.015
222.996
218.366
215.237
213.081
211.581
210.539
209.838
209.413
209.233
209.303
209.654
210.361
211.56
213.492
216.548
221.356
228.886
240.668
)
;

boundaryField
{
    movingWall
    {
        type            fixedValue;
        value           uniform 200;
    }
    fixedWalls
    {
        type            fixedValue;
        value           uniform 250;
    }
    frontAndBack
    {
        type            empty;
    }
}


// ************************************************************************* //
