/*--------------------------------*- C++ -*----------------------------------*\
  =========                 |
  \\      /  F ield         | OpenFOAM: The Open Source CFD Toolbox
   \\    /   O peration     | Website:  https://openfoam.org
    \\  /    A nd           | Version:  10
     \\/     M anipulation  |
\*---------------------------------------------------------------------------*/
FoamFile
{
    format      ascii;
    class       volScalarField;
    location    "0.1";
    object      D;
}
// * * * * * * * * * * * * * * * * * * * * * * * * * * * * * * * * * * * * * //

dimensions      [0 2 -1 0 0 0 0];

internalField   nonuniform List<scalar> 
400
(
0.0599812
0.0599439
0.0599081
0.0598745
0.059844
0.0598172
0.0597949
0.0597776
0.0597655
0.0597591
0.0597585
0.0597637
0.0597747
0.0597913
0.0598132
0.05984
0.0598709
0.0599053
0.0599421
0.0599805
0.059943
0.0598302
0.0597214
0.0596194
0.0595265
0.0594451
0.0593771
0.0593241
0.0592873
0.0592677
0.0592657
0.0592815
0.0593151
0.0593658
0.0594327
0.0595142
0.0596083
0.0597127
0.0598247
0.0599411
0.0599035
0.0597121
0.0595274
0.059354
0.059196
0.0590575
0.0589416
0.0588512
0.0587884
0.0587547
0.0587511
0.058778
0.0588351
0.0589215
0.0590353
0.0591741
0.0593344
0.0595121
0.0597024
0.0599001
0.0598615
0.0595869
0.0593214
0.0590718
0.0588444
0.0586448
0.0584777
0.0583471
0.0582563
0.0582075
0.058202
0.0582404
0.0583224
0.0584467
0.0586107
0.0588107
0.0590418
0.0592979
0.059572
0.0598565
0.0598163
0.0594512
0.059098
0.0587657
0.0584628
0.0581966
0.0579737
0.0577993
0.0576778
0.057612
0.0576041
0.0576546
0.0577635
0.0579288
0.0581474
0.0584142
0.0587225
0.0590643
0.0594299
0.059809
0.0597664
0.0593016
0.0588515
0.0584278
0.0580412
0.0577014
0.0574166
0.0571936
0.0570377
0.056953
0.0569418
0.0570053
0.0571432
0.0573536
0.0576324
0.0579732
0.0583674
0.0588045
0.059272
0.0597564
0.0597106
0.0591341
0.0585752
0.0580487
0.0575683
0.0571458
0.0567916
0.0565139
0.0563194
0.0562128
0.0561974
0.0562746
0.0564445
0.0567049
0.0570508
0.0574747
0.0579658
0.0585108
0.0590936
0.059697
0.0596474
0.0589436
0.0582608
0.0576175
0.0570305
0.0565145
0.0560816
0.0557419
0.0555032
0.0553714
0.0553504
0.0554422
0.0556473
0.0559635
0.0563852
0.0569034
0.0575051
0.0581737
0.0588891
0.0596291
0.0595747
0.0587242
0.0578986
0.0571209
0.0564117
0.0557886
0.0552661
0.0548557
0.0545666
0.0544055
0.0543771
0.0544843
0.0547282
0.0551069
0.0556144
0.0562406
0.0569699
0.0577818
0.0586514
0.0595503
0.0594899
0.0584681
0.0574758
0.056542
0.0556917
0.0549457
0.0543207
0.0538296
0.0534826
0.0532874
0.0532495
0.0533727
0.0536593
0.0541079
0.054713
0.0554632
0.0563407
0.0573206
0.0583716
0.0594579
0.0593897
0.0581648
0.0569757
0.0558587
0.0548445
0.0539571
0.053215
0.0526322
0.0522192
0.0519845
0.0519344
0.0520739
0.0524068
0.0529334
0.053649
0.0545421
0.0555927
0.056771
0.0580381
0.0593479
0.0592694
0.0577999
0.0563752
0.0550417
0.0538364
0.0527864
0.0519113
0.0512249
0.0507376
0.0504576
0.0503921
0.0505475
0.0509298
0.0515422
0.0523822
0.0534396
0.0546928
0.0561074
0.0576348
0.0592153
0.0591219
0.0573523
0.0556415
0.0540498
0.0526212
0.0513855
0.050361
0.0495597
0.04899
0.0486591
0.0485746
0.0487444
0.0491781
0.0498828
0.0508608
0.0521054
0.053596
0.0552937
0.0571387
0.0590525
0.0589365
0.0567894
0.0547253
0.0528233
0.051135
0.0496893
0.0485006
0.0475752
0.046917
0.0465306
0.0464232
0.0466046
0.0470888
0.0478894
0.0490166
0.0504714
0.0522383
0.054277
0.0565151
0.0588482
0.0586949
0.0560584
0.0535496
0.051273
0.049285
0.0476078
0.0462447
0.0451913
0.044443
0.0439991
0.0438653
0.0440534
0.0445828
0.0454766
0.0467577
0.0484417
0.0505261
0.0529759
0.0557084
0.0585835
0.0583644
0.0550678
0.0519877
0.0492594
0.0469333
0.0450115
0.0434752
0.0423004
0.0414684
0.0409704
0.0408081
0.0409952
0.0415577
0.0425313
0.0439576
0.0458776
0.048316
0.0512586
0.0546228
0.0582248
0.0578776
0.0536447
0.0498193
0.0465552
0.0438666
0.0417084
0.0400219
0.038751
0.0378559
0.0373151
0.0371254
0.0373017
0.0378757
0.0388979
0.0404362
0.0425714
0.04538
0.0488986
0.0530793
0.0577026
0.0570701
0.0514324
0.0466365
0.0427718
0.0397443
0.0374057
0.0356272
0.034311
0.0333914
0.0328317
0.0326214
0.0327751
0.0333288
0.0343479
0.0359298
0.0382068
0.0413383
0.0454831
0.0507118
0.0568489
0.0554434
0.0476062
0.0416305
0.0372166
0.0339722
0.0315839
0.0298304
0.0285634
0.0276892
0.0271549
0.0269413
0.0270597
0.0275469
0.0284785
0.0299796
0.0322408
0.0355346
0.0402183
0.0466868
0.0551594
0.05101
0.0400107
0.032987
0.0283515
0.0252168
0.0230569
0.0215523
0.0205074
0.0198046
0.0193778
0.0191987
0.0192701
0.0196235
0.0203332
0.0215373
0.0234736
0.0265349
0.0313475
0.038882
0.0506672
)
;

boundaryField
{
    movingWall
    {
        type            calculated;
        value           uniform 0.01;
    }
    fixedWalls
    {
        type            calculated;
        value           uniform 0.06;
    }
    frontAndBack
    {
        type            empty;
    }
}


// ************************************************************************* //
