/*--------------------------------*- C++ -*----------------------------------*\
  =========                 |
  \\      /  F ield         | OpenFOAM: The Open Source CFD Toolbox
   \\    /   O peration     | Website:  https://openfoam.org
    \\  /    A nd           | Version:  10
     \\/     M anipulation  |
\*---------------------------------------------------------------------------*/
FoamFile
{
    format      ascii;
    class       volScalarField;
    location    "0.1";
    object      T;
}
// * * * * * * * * * * * * * * * * * * * * * * * * * * * * * * * * * * * * * //

dimensions      [0 0 0 1 0 0 0];

internalField   nonuniform List<scalar> 
400
(
249.981
249.944
249.908
249.874
249.844
249.817
249.795
249.778
249.766
249.759
249.758
249.764
249.775
249.791
249.813
249.84
249.871
249.905
249.942
249.981
249.943
249.83
249.721
249.619
249.527
249.445
249.377
249.324
249.287
249.268
249.266
249.282
249.315
249.366
249.433
249.514
249.608
249.713
249.825
249.941
249.903
249.712
249.527
249.354
249.196
249.057
248.942
248.851
248.788
248.755
248.751
248.778
248.835
248.921
249.035
249.174
249.334
249.512
249.702
249.9
249.862
249.587
249.321
249.072
248.844
248.645
248.478
248.347
248.256
248.207
248.202
248.24
248.322
248.447
248.611
248.811
249.042
249.298
249.572
249.856
249.816
249.451
249.098
248.766
248.463
248.197
247.974
247.799
247.678
247.612
247.604
247.655
247.763
247.929
248.147
248.414
248.723
249.064
249.43
249.809
249.766
249.302
248.852
248.428
248.041
247.701
247.417
247.194
247.038
246.953
246.942
247.005
247.143
247.354
247.632
247.973
248.367
248.804
249.272
249.756
249.711
249.134
248.575
248.049
247.568
247.146
246.792
246.514
246.319
246.213
246.197
246.275
246.445
246.705
247.051
247.475
247.966
248.511
249.094
249.697
249.647
248.944
248.261
247.618
247.031
246.514
246.082
245.742
245.503
245.371
245.35
245.442
245.647
245.963
246.385
246.903
247.505
248.174
248.889
249.629
249.575
248.724
247.899
247.121
246.412
245.789
245.266
244.856
244.567
244.405
244.377
244.484
244.728
245.107
245.614
246.241
246.97
247.782
248.651
249.55
249.49
248.468
247.476
246.542
245.692
244.946
244.321
243.83
243.483
243.287
243.25
243.373
243.659
244.108
244.713
245.463
246.341
247.321
248.372
249.458
249.39
248.165
246.976
245.859
244.845
243.957
243.215
242.632
242.219
241.984
241.934
242.074
242.407
242.933
243.649
244.542
245.593
246.771
248.038
249.348
249.269
247.8
246.375
245.042
243.836
242.786
241.911
241.225
240.738
240.458
240.392
240.547
240.93
241.542
242.382
243.44
244.693
246.107
247.635
249.215
249.122
247.352
245.641
244.05
242.621
241.385
240.361
239.56
238.99
238.659
238.575
238.744
239.178
239.883
240.861
242.105
243.596
245.294
247.139
249.053
248.936
246.789
244.725
242.823
241.135
239.689
238.501
237.575
236.917
236.531
236.423
236.605
237.089
237.889
239.017
240.471
242.238
244.277
246.515
248.848
248.695
246.058
243.55
241.273
239.285
237.608
236.245
235.191
234.443
233.999
233.865
234.053
234.583
235.477
236.758
238.442
240.526
242.976
245.708
248.584
248.364
245.068
241.988
239.259
236.933
235.011
233.475
232.3
231.468
230.97
230.808
230.995
231.558
232.531
233.958
235.878
238.316
241.259
244.623
248.225
247.878
243.645
239.819
236.555
233.867
231.708
230.022
228.751
227.856
227.315
227.125
227.302
227.876
228.898
230.436
232.571
235.38
238.899
243.079
247.703
247.07
241.432
236.637
232.772
229.744
227.406
225.627
224.311
223.391
222.832
222.621
222.775
223.329
224.348
225.93
228.207
231.338
235.483
240.712
246.849
245.443
237.606
231.631
227.217
223.972
221.584
219.83
218.563
217.689
217.155
216.941
217.06
217.547
218.478
219.98
222.241
225.535
230.218
236.687
245.159
241.01
230.011
222.987
218.352
215.217
213.057
211.552
210.507
209.805
209.378
209.199
209.27
209.623
210.333
211.537
213.474
216.535
221.348
228.882
240.667
)
;

boundaryField
{
    movingWall
    {
        type            fixedValue;
        value           uniform 200;
    }
    fixedWalls
    {
        type            fixedValue;
        value           uniform 250;
    }
    frontAndBack
    {
        type            empty;
    }
}


// ************************************************************************* //
