/*--------------------------------*- C++ -*----------------------------------*\
  =========                 |
  \\      /  F ield         | OpenFOAM: The Open Source CFD Toolbox
   \\    /   O peration     | Website:  https://openfoam.org
    \\  /    A nd           | Version:  10
     \\/     M anipulation  |
\*---------------------------------------------------------------------------*/
FoamFile
{
    format      ascii;
    class       volScalarField;
    location    "3";
    object      D;
}
// * * * * * * * * * * * * * * * * * * * * * * * * * * * * * * * * * * * * * //

dimensions      [0 2 -1 0 0 0 0];

internalField   nonuniform List<scalar> 
400
(
0.0599814
0.0599446
0.0599092
0.059876
0.0598459
0.0598195
0.0597974
0.0597803
0.0597684
0.059762
0.0597613
0.0597664
0.0597773
0.0597937
0.0598154
0.0598418
0.0598724
0.0599063
0.0599428
0.0599808
0.0599437
0.0598323
0.0597248
0.059624
0.0595323
0.0594519
0.0593847
0.0593323
0.0592959
0.0592764
0.0592743
0.0592899
0.059323
0.0593731
0.0594391
0.0595196
0.0596127
0.0597159
0.0598266
0.0599418
0.0599046
0.0597156
0.0595331
0.0593617
0.0592056
0.0590687
0.0589542
0.0588648
0.0588026
0.0587692
0.0587656
0.058792
0.0588483
0.0589335
0.059046
0.0591831
0.0593416
0.0595173
0.0597056
0.0599012
0.0598631
0.0595916
0.0593292
0.0590825
0.0588577
0.0586604
0.0584951
0.058366
0.0582761
0.0582277
0.058222
0.0582598
0.0583407
0.0584634
0.0586254
0.0588232
0.0590517
0.0593051
0.0595763
0.0598579
0.0598182
0.0594572
0.0591079
0.0587793
0.0584796
0.0582164
0.0579959
0.0578233
0.057703
0.0576377
0.0576296
0.0576793
0.0577866
0.0579499
0.058166
0.0584299
0.058735
0.0590733
0.0594353
0.0598108
0.0597688
0.0593087
0.0588633
0.058444
0.0580614
0.0577252
0.0574433
0.0572225
0.0570681
0.0569839
0.0569724
0.0570348
0.0571709
0.0573789
0.0576545
0.0579918
0.0583822
0.0588152
0.0592784
0.0597585
0.0597133
0.0591422
0.0585887
0.0580673
0.0575916
0.0571734
0.0568225
0.0565474
0.0563545
0.0562486
0.0562327
0.0563087
0.0564764
0.0567338
0.0570762
0.057496
0.0579827
0.0585229
0.0591009
0.0596994
0.0596504
0.0589527
0.0582759
0.0576384
0.0570567
0.0565453
0.0561163
0.0557795
0.0555427
0.0554116
0.0553901
0.0554803
0.0556829
0.0559957
0.0564133
0.0569269
0.0575237
0.058187
0.058897
0.0596317
0.0595779
0.0587341
0.057915
0.0571437
0.0564404
0.0558225
0.0553043
0.0548971
0.0546099
0.0544495
0.0544206
0.054526
0.054767
0.0551418
0.0556449
0.0562659
0.0569898
0.0577961
0.0586598
0.0595531
0.0594933
0.0584785
0.0574933
0.0565663
0.0557224
0.0549821
0.0543618
0.0538742
0.0535293
0.0533348
0.0532962
0.0534174
0.0537007
0.0541451
0.0547452
0.0554899
0.0563616
0.0573354
0.0583804
0.0594607
0.0593933
0.0581757
0.056994
0.0558843
0.0548769
0.0539956
0.0532585
0.0526794
0.0522687
0.0520347
0.0519838
0.0521209
0.0524502
0.0529722
0.0536825
0.0545697
0.0556141
0.0567861
0.058047
0.0593508
0.059273
0.057811
0.056394
0.0550681
0.0538699
0.0528264
0.0519566
0.0512742
0.0507892
0.0505099
0.0504434
0.0505963
0.0509747
0.0515821
0.0524164
0.0534675
0.0547144
0.0561225
0.0576436
0.0592181
0.0591255
0.0573633
0.0556603
0.0540764
0.0526554
0.0514263
0.0504074
0.0496103
0.049043
0.0487128
0.0486272
0.0487943
0.0492238
0.0499232
0.0508952
0.0521333
0.0536173
0.0553085
0.0571473
0.0590552
0.0589399
0.0568001
0.0547438
0.0528498
0.0511691
0.0497303
0.0485474
0.0476263
0.0469707
0.0465851
0.0464765
0.046655
0.0471347
0.0479297
0.0490506
0.0504988
0.052259
0.0542912
0.0565233
0.0588507
0.0586981
0.0560687
0.0535674
0.0512987
0.0493183
0.0476481
0.046291
0.0452421
0.0444965
0.0440535
0.0439185
0.0441036
0.0446284
0.0455164
0.046791
0.0484681
0.0505458
0.0529893
0.055716
0.0585859
0.0583673
0.0550772
0.0520044
0.0492836
0.0469651
0.0450504
0.0435201
0.0423498
0.0415207
0.0410237
0.0408603
0.0410444
0.0416022
0.04257
0.0439897
0.0459028
0.0483345
0.0512709
0.0546296
0.0582269
0.05788
0.0536531
0.0498344
0.0465775
0.0438962
0.0417449
0.0400644
0.038798
0.0379059
0.0373662
0.0371756
0.0373491
0.0379186
0.0389351
0.0404668
0.0425951
0.0453972
0.0489098
0.0530853
0.0577043
0.0570721
0.0514395
0.0466496
0.0427915
0.0397709
0.0374389
0.0356661
0.0343544
0.0334377
0.0328792
0.0326683
0.0328195
0.0333691
0.0343827
0.0359584
0.0382288
0.0413539
0.045493
0.050717
0.0568503
0.0554449
0.047612
0.0416415
0.0372335
0.0339953
0.0316129
0.0298645
0.0286016
0.0277301
0.027197
0.0269831
0.0270995
0.0275832
0.0285101
0.0300057
0.0322609
0.0355487
0.0402271
0.0466912
0.0551606
0.051011
0.0400154
0.0329963
0.028366
0.0252365
0.0230815
0.0215809
0.0205391
0.0198384
0.0194126
0.0192332
0.0193033
0.0196542
0.0203605
0.0215605
0.0234918
0.026548
0.0313556
0.0388859
0.050668
)
;

boundaryField
{
    movingWall
    {
        type            calculated;
        value           uniform 0.01;
    }
    fixedWalls
    {
        type            calculated;
        value           uniform 0.06;
    }
    frontAndBack
    {
        type            empty;
    }
}


// ************************************************************************* //
